 variables = x,y,z,,<greek>p
 zone i =           31 ,j =          101 ,k=1,f=point
  -1.42731608787298       7.624223724236531E-006  0.239999994393131     
  0.0000000E+00
  -1.28458447908568       7.012284815457927E-006  0.220737005775320     
  0.0000000E+00
  -1.14185287029839       6.366905137146061E-006  0.200421348086053     
  0.0000000E+00
 -0.999121261511087       5.688084689300498E-006  0.179053021325345     
  0.0000000E+00
 -0.856389652723789       4.975823471922974E-006  0.156632025493195     
  0.0000000E+00
 -0.713658043936491       4.230121485012187E-006  0.133158360589618     
  0.0000000E+00
 -0.570926435149193       3.450978728568137E-006  0.108632026614572     
  0.0000000E+00
 -0.428194826361894       2.638395202591258E-006  8.305302356809818E-002
  0.0000000E+00
 -0.285463217574596       1.792370907081550E-006  5.642135145016880E-002
  0.0000000E+00
 -0.142731608787298       9.129058420385798E-007  2.873701026079800E-002
  0.0000000E+00
  2.220446049250313E-016  7.463214074521218E-015  0.000000000000000E+000
  0.0000000E+00
  0.142731608787298      -9.463465966458480E-007 -2.978967933226784E-002
  0.0000000E+00
  0.285463217574596      -1.926133970287305E-006 -6.063202773596288E-002
  0.0000000E+00
  0.428194826361895      -2.939362113462025E-006 -9.252704521109933E-002
  0.0000000E+00
  0.570926435149193      -3.986031026170008E-006 -0.125474731757691     
  0.0000000E+00
  0.713658043936491      -5.066140708410820E-006 -0.159475087375725     
  0.0000000E+00
  0.856389652723789      -6.179691160184027E-006 -0.194528112065186     
  0.0000000E+00
  0.999121261511087      -7.326682381490930E-006 -0.230633805826116     
  0.0000000E+00
   1.14185287029839      -8.507114372330229E-006 -0.267792168658474     
  0.0000000E+00
   1.28458447908568      -9.720987132703224E-006 -0.306003200562287     
  0.0000000E+00
   1.42731608787298      -1.096830066260818E-005 -0.345266901537528     
  0.0000000E+00
   1.57004769666028      -1.224905496204727E-005 -0.385583271584224     
  0.0000000E+00
   1.71277930544758      -1.356325003101875E-005 -0.426952310702362     
  0.0000000E+00
   1.85551091423488      -1.491088586952306E-005 -0.469374018891941     
  0.0000000E+00
   1.99824252302217      -1.629196247756063E-005 -0.512848396152961     
  0.0000000E+00
   2.14097413180947      -1.770647985513104E-005 -0.557375442485437     
  0.0000000E+00
   2.28370574059677      -1.915443800223427E-005 -0.602955157889355     
  0.0000000E+00
   2.42643734938407      -2.063583691887076E-005 -0.649587542364713     
  0.0000000E+00
   2.56916895817137      -2.215067660504009E-005 -0.697272595911514     
  0.0000000E+00
   2.71190056695866      -2.369895706074267E-005 -0.746010318529770     
  0.0000000E+00
   2.85463217574596      -2.528067828597765E-005 -0.795800710219453     
  0.0000000E+00
  -1.42695166898865       8.022725476456301E-003  0.239998618576180     
  0.0000000E+00
  -1.28425650208978       8.023421428399690E-003  0.220733844806389     
  0.0000000E+00
  -1.14156133519092       8.024155393175181E-003  0.200416830838464     
  0.0000000E+00
 -0.998866168292053       8.024927370782775E-003  0.179047576672389     
  0.0000000E+00
 -0.856171001393188       8.025737361222474E-003  0.156626082308151     
  0.0000000E+00
 -0.713475834494323       8.026585364494273E-003  0.133152347745778     
  0.0000000E+00
 -0.570780667595459       8.027471380598176E-003  0.108626372985228     
  0.0000000E+00
 -0.428085500696594       8.028395409534185E-003  8.304815802654275E-002
  0.0000000E+00
 -0.285390333797729       8.029357451302293E-003  5.641770286969461E-002
  0.0000000E+00
 -0.142695166898865       8.030357505902506E-003  2.873500751471170E-002
  0.0000000E+00
  0.000000000000000E+000  8.031395573334823E-003  7.196156559530209E-008
  0.0000000E+00
  0.142695166898865       8.032471653599242E-003 -2.978710378972949E-002
  0.0000000E+00
  0.285390333797729       8.033585746695764E-003 -6.062651973917355E-002
  0.0000000E+00
  0.428085500696594       8.034737852624390E-003 -9.251817588678080E-002
  0.0000000E+00
  0.570780667595459       8.035927971385118E-003 -0.125462072232537     
  0.0000000E+00
  0.713475834494323       8.037156102977949E-003 -0.159458208776442     
  0.0000000E+00
  0.856171001393188       8.038422247402885E-003 -0.194506585518496     
  0.0000000E+00
  0.998866168292053       8.039726404659922E-003 -0.230607202458700     
  0.0000000E+00
   1.14156133519092       8.041068574749063E-003 -0.267760059597066     
  0.0000000E+00
   1.28425650208978       8.042448757670309E-003 -0.305965156933581     
  0.0000000E+00
   1.42695166898865       8.043866953423654E-003 -0.345222494468231     
  0.0000000E+00
   1.56964683588751       8.045323162009104E-003 -0.385532072201045     
  0.0000000E+00
   1.71234200278638       8.046817383426660E-003 -0.426893890132021     
  0.0000000E+00
   1.85503716968524       8.048349617676316E-003 -0.469307948261132     
  0.0000000E+00
   1.99773233658411       8.049919864758075E-003 -0.512774246588421     
  0.0000000E+00
   2.14042750348297       8.051528124671938E-003 -0.557292785113830     
  0.0000000E+00
   2.28312267038183       8.053174397417904E-003 -0.602863563837417     
  0.0000000E+00
   2.42581783728070       8.054858682995974E-003 -0.649486582759138     
  0.0000000E+00
   2.56851300417956       8.056580981406145E-003 -0.697161841879009     
  0.0000000E+00
   2.71120817107843       8.058341292648420E-003 -0.745889341197042     
  0.0000000E+00
   2.85390333797729       8.060139616722799E-003 -0.795669080713239     
  0.0000000E+00
  -1.42589666666557       1.590722200433720E-002  0.239997066623246     
  0.0000000E+00
  -1.28330699999902       1.590952076677868E-002  0.220726777526416     
  0.0000000E+00
  -1.14071733333246       1.591194489982539E-002  0.200405519541533     
  0.0000000E+00
 -0.998127666665902       1.591449440347732E-002  0.179033292668592     
  0.0000000E+00
 -0.855537999999344       1.591716927773449E-002  0.156610096907606     
  0.0000000E+00
 -0.712948333332787       1.591996952259688E-002  0.133135932258561     
  0.0000000E+00
 -0.570358666666230       1.592289513806451E-002  0.108610798721458     
  0.0000000E+00
 -0.427768999999672       1.592594612413736E-002  8.303469629630911E-002
  0.0000000E+00
 -0.285179333333115       1.592912248081545E-002  5.640762498310892E-002
  0.0000000E+00
 -0.142589666666558       1.593242420809876E-002  2.872958478184984E-002
  0.0000000E+00
 -2.220446049250313E-016  1.593585130598731E-002  5.756925460786988E-007
  0.0000000E+00
  0.142589666666557       1.593940377448108E-002 -2.977940228482368E-002
  0.0000000E+00
  0.285179333333114       1.594308161358008E-002 -6.061034915023811E-002
  0.0000000E+00
  0.427768999999672       1.594688482328432E-002 -9.249226490370432E-002
  0.0000000E+00
  0.570358666666229       1.595081340359378E-002 -0.125425149545229     
  0.0000000E+00
  0.712948333332787       1.595486735450847E-002 -0.159409003074799     
  0.0000000E+00
  0.855537999999344       1.595904667602839E-002 -0.194443825492435     
  0.0000000E+00
  0.998127666665901       1.596335136815354E-002 -0.230529616798115     
  0.0000000E+00
   1.14071733333246       1.596778143088392E-002 -0.267666376991855     
  0.0000000E+00
   1.28330699999902       1.597233686421953E-002 -0.305854106073646     
  0.0000000E+00
   1.42589666666557       1.597701766816037E-002 -0.345092804043489     
  0.0000000E+00
   1.56848633333213       1.598182384270644E-002 -0.385382470901376     
  0.0000000E+00
   1.71107599999869       1.598675538785774E-002 -0.426723106647330     
  0.0000000E+00
   1.85366566666525       1.599181230361426E-002 -0.469114711281335     
  0.0000000E+00
   1.99625533333180       1.599699458997602E-002 -0.512557284803385     
  0.0000000E+00
   2.13884499999836       1.600230224694301E-002 -0.557050827213494     
  0.0000000E+00
   2.28143466666492       1.600773527451523E-002 -0.602595338511655     
  0.0000000E+00
   2.42402433333147       1.601329367269267E-002 -0.649190818697868     
  0.0000000E+00
   2.56661399999803       1.601897744147535E-002 -0.696837267772139     
  0.0000000E+00
   2.70920366666459       1.602478658086325E-002 -0.745534685734462     
  0.0000000E+00
   2.85179333333115       1.603072109085639E-002 -0.795283072584837     
  0.0000000E+00
  -1.42416129695911       2.365315758459421E-002  0.239987219288736     
  0.0000000E+00
  -1.28174516726320       2.365818998346114E-002  0.220708740205282     
  0.0000000E+00
  -1.13932903756728       2.366349618409046E-002  0.200381361444236     
  0.0000000E+00
 -0.996912907871374       2.366907618648216E-002  0.179005083005585     
  0.0000000E+00
 -0.854496778175464       2.367492999063624E-002  0.156579904889348     
  0.0000000E+00
 -0.712080648479553       2.368105759655270E-002  0.133105827095505     
  0.0000000E+00
 -0.569664518783642       2.368745900423154E-002  0.108582849624071     
  0.0000000E+00
 -0.427248389087732       2.369413421367276E-002  8.301097247503719E-002
  0.0000000E+00
 -0.284832259391821       2.370108322487636E-002  5.639019564840453E-002
  0.0000000E+00
 -0.142416129695911       2.370830603784235E-002  2.872051914417995E-002
  0.0000000E+00
  0.000000000000000E+000  2.371580265257071E-002  1.942962349232857E-006
  0.0000000E+00
  0.142416129695911       2.372357306906146E-002 -2.976553289707340E-002
  0.0000000E+00
  0.284832259391821       2.373161728731458E-002 -6.058190843409506E-002
  0.0000000E+00
  0.427248389087732       2.373993530733009E-002 -9.244718364871574E-002
  0.0000000E+00
  0.569664518783643       2.374852712910797E-002 -0.125361358540928     
  0.0000000E+00
  0.712080648479553       2.375739275264824E-002 -0.159324433110733     
  0.0000000E+00
  0.854496778175464       2.376653217795089E-002 -0.194336407358151     
  0.0000000E+00
  0.996912907871375       2.377594540501592E-002 -0.230397281283146     
  0.0000000E+00
   1.13932903756728       2.378563243384333E-002 -0.267507054885755     
  0.0000000E+00
   1.28174516726320       2.379559326443312E-002 -0.305665728165955     
  0.0000000E+00
   1.42416129695911       2.380582789678529E-002 -0.344873301123748     
  0.0000000E+00
   1.56657742665502       2.381633633089984E-002 -0.385129773759147     
  0.0000000E+00
   1.70899355635093       2.382711856677677E-002 -0.426435146072137     
  0.0000000E+00
   1.85140968604684       2.383817460441609E-002 -0.468789418062727     
  0.0000000E+00
   1.99382581574275       2.384950444381778E-002 -0.512192589730908     
  0.0000000E+00
   2.13624194543866       2.386110808498186E-002 -0.556644661076689     
  0.0000000E+00
   2.27865807513457       2.387298552790831E-002 -0.602145632100076     
  0.0000000E+00
   2.42107420483048       2.388513677259715E-002 -0.648695502801054     
  0.0000000E+00
   2.56349033452639       2.389756181904837E-002 -0.696294273179625     
  0.0000000E+00
   2.70590646422230       2.391026066726197E-002 -0.744941943235801     
  0.0000000E+00
   2.84832259391821       2.392323331723795E-002 -0.794638512969570     
  0.0000000E+00
  -1.42183266388775       3.126231897514278E-002  0.239975916962116     
  0.0000000E+00
  -1.27964939749898       3.127127093143667E-002  0.220686269256472     
  0.0000000E+00
  -1.13746613111020       3.128070836616635E-002  0.200350514120483     
  0.0000000E+00
 -0.995282864721428       3.129063127933182E-002  0.178968651554154     
  0.0000000E+00
 -0.853099598332653       3.130103967093308E-002  0.156540681557491     
  0.0000000E+00
 -0.710916331943877       3.131193354097014E-002  0.133066604130487     
  0.0000000E+00
 -0.568733065555102       3.132331288944298E-002  0.108546419273143     
  0.0000000E+00
 -0.426549799166326       3.133517771635162E-002  8.298012698546131E-002
  0.0000000E+00
 -0.284366532777551       3.134752802169605E-002  5.636772726743544E-002
  0.0000000E+00
 -0.142183266388775       3.136036380547626E-002  2.870922011907595E-002
  0.0000000E+00
  0.000000000000000E+000  3.137368506769227E-002  4.605540379287731E-006
  0.0000000E+00
  0.142183266388776       3.138749180834408E-002 -2.974611646866165E-002
  0.0000000E+00
  0.284366532777551       3.140178402743167E-002 -6.054294590803977E-002
  0.0000000E+00
  0.426549799166327       3.141656172495505E-002 -9.238588277775506E-002
  0.0000000E+00
  0.568733065555102       3.143182490091423E-002 -0.125274927077811     
  0.0000000E+00
  0.710916331943877       3.144757355530920E-002 -0.159210078808208     
  0.0000000E+00
  0.853099598332653       3.146380768813996E-002 -0.194191337968942     
  0.0000000E+00
  0.995282864721429       3.148052729940651E-002 -0.230218704560016     
  0.0000000E+00
   1.13746613111020       3.149773238910885E-002 -0.267292178581428     
  0.0000000E+00
   1.27964939749898       3.151542295724698E-002 -0.305411760033181     
  0.0000000E+00
   1.42183266388775       3.153359900382091E-002 -0.344577448915270     
  0.0000000E+00
   1.56401593027653       3.155226052883062E-002 -0.384789245227697     
  0.0000000E+00
   1.70619919666531       3.157140753227614E-002 -0.426047148970468     
  0.0000000E+00
   1.84838246305408       3.159104001415743E-002 -0.468351160143577     
  0.0000000E+00
   1.99056572944286       3.161115797447452E-002 -0.511701278747022     
  0.0000000E+00
   2.13274899583163       3.163176141322740E-002 -0.556097504780809     
  0.0000000E+00
   2.27493226222041       3.165285033041608E-002 -0.601539838244932     
  0.0000000E+00
   2.41711552860918       3.167442472604055E-002 -0.648028279139396     
  0.0000000E+00
   2.55929879499796       3.169648460010080E-002 -0.695562827464201     
  0.0000000E+00
   2.70148206138673       3.171902995259685E-002 -0.744143483219343     
  0.0000000E+00
   2.84366532777551       3.174206078352869E-002 -0.793770246404826     
  0.0000000E+00
  -1.41887199902146       3.873649144983527E-002  0.239948636653533     
  0.0000000E+00
  -1.27698479911931       3.875060522489200E-002  0.220646283786582     
  0.0000000E+00
  -1.13509759921717       3.876548132896172E-002  0.200301350635460     
  0.0000000E+00
 -0.993210399315020       3.878111976204443E-002  0.178913837200156     
  0.0000000E+00
 -0.851323199412874       3.879752052414013E-002  0.156483743480671     
  0.0000000E+00
 -0.709435999510728       3.881468361524882E-002  0.133011069477011     
  0.0000000E+00
 -0.567548799608583       3.883260903537050E-002  0.108495815189176     
  0.0000000E+00
 -0.425661599706437       3.885129678450518E-002  8.293798061716018E-002
  0.0000000E+00
 -0.283774399804291       3.887074686265284E-002  5.633756576096616E-002
  0.0000000E+00
 -0.141887199902146       3.889095926981349E-002  2.869457062059766E-002
  0.0000000E+00
  0.000000000000000E+000  3.891193400598714E-002  8.995196051131416E-006
  0.0000000E+00
  0.141887199902146       3.893367107117378E-002 -2.971916051267698E-002
  0.0000000E+00
  0.283774399804291       3.895617046537340E-002 -6.048989650557601E-002
  0.0000000E+00
  0.425661599706437       3.897943218858602E-002 -9.230321278266018E-002
  0.0000000E+00
  0.567548799608583       3.900345624081163E-002 -0.125159109343919     
  0.0000000E+00
  0.709435999510728       3.902824262205024E-002 -0.159057586189356     
  0.0000000E+00
  0.851323199412874       3.905379133230182E-002 -0.193998643318970     
  0.0000000E+00
  0.993210399315020       3.908010237156640E-002 -0.229982280732759     
  0.0000000E+00
   1.13509759921717       3.910717573984398E-002 -0.267008498430734     
  0.0000000E+00
   1.27698479911931       3.913501143713454E-002 -0.305077296412879     
  0.0000000E+00
   1.41887199902146       3.916360946343810E-002 -0.344188674679202     
  0.0000000E+00
   1.56075919892360       3.919296981875464E-002 -0.384342633229711     
  0.0000000E+00
   1.70264639882575       3.922309250308418E-002 -0.425539172064390     
  0.0000000E+00
   1.84453359872789       3.925397751642670E-002 -0.467778291183247     
  0.0000000E+00
   1.98642079863004       3.928562485878223E-002 -0.511059990586286     
  0.0000000E+00
   2.12830799853219       3.931803453015074E-002 -0.555384270273500     
  0.0000000E+00
   2.27019519843433       3.935120653053224E-002 -0.600751130244891     
  0.0000000E+00
   2.41208239833648       3.938514085992673E-002 -0.647160570500461     
  0.0000000E+00
   2.55396959823862       3.941983751833421E-002 -0.694612591040208     
  0.0000000E+00
   2.69585679814077       3.945529650575469E-002 -0.743107191864134     
  0.0000000E+00
   2.83774399804291       3.949151782218815E-002 -0.792644372972234     
  0.0000000E+00
  -1.41538926276831       4.607744174871482E-002  0.239916213848716     
  0.0000000E+00
  -1.27385033649148       4.609801850487583E-002  0.220599017745002     
  0.0000000E+00
  -1.13231141021465       4.611970138574213E-002  0.200243405883231     
  0.0000000E+00
 -0.990772483937817       4.614249039131373E-002  0.178849378263390     
  0.0000000E+00
 -0.849233557660986       4.616638552159062E-002  0.156416934885492     
  0.0000000E+00
 -0.707694631384155       4.619138677657282E-002  0.132946075749530     
  0.0000000E+00
 -0.566155705107324       4.621749415626031E-002  0.108436800855504     
  0.0000000E+00
 -0.424616778830493       4.624470766065310E-002  8.288911020341772E-002
  0.0000000E+00
 -0.283077852553662       4.627302728975118E-002  5.630300379326769E-002
  0.0000000E+00
 -0.141538926276831       4.630245304355457E-002  2.867848162505382E-002
  0.0000000E+00
  0.000000000000000E+000  4.633298492206325E-002  1.554369877965200E-005
  0.0000000E+00
  0.141538926276831       4.636462292527723E-002 -2.968580998555836E-002
  0.0000000E+00
  0.283077852553662       4.639736705319651E-002 -6.042557942795668E-002
  0.0000000E+00
  0.424616778830493       4.643121730582108E-002 -9.220376462841884E-002
  0.0000000E+00
  0.566155705107324       4.646617368315095E-002 -0.125020365586945     
  0.0000000E+00
  0.707694631384155       4.650223618518612E-002 -0.158875382303531     
  0.0000000E+00
  0.849233557660986       4.653940481192659E-002 -0.193768814778181     
  0.0000000E+00
  0.990772483937817       4.657767956337236E-002 -0.229700663010895     
  0.0000000E+00
   1.13231141021465       4.661706043952342E-002 -0.266670927001670     
  0.0000000E+00
   1.27385033649148       4.665754744037978E-002 -0.304679606750504     
  0.0000000E+00
   1.41538926276831       4.669914056594143E-002 -0.343726702257403     
  0.0000000E+00
   1.55692818904514       4.674183981620839E-002 -0.383812213522365     
  0.0000000E+00
   1.69846711532197       4.678564519118064E-002 -0.424936140545391     
  0.0000000E+00
   1.84000604159880       4.683055669085820E-002 -0.467098483326481     
  0.0000000E+00
   1.98154496787563       4.687657431524105E-002 -0.510299241865631     
  0.0000000E+00
   2.12308389415247       4.692369806432919E-002 -0.554538416162842     
  0.0000000E+00
   2.26462282042930       4.697192793812263E-002 -0.599816006218116     
  0.0000000E+00
   2.40616174670613       4.702126393662137E-002 -0.646132012031455     
  0.0000000E+00
   2.54770067298296       4.707170605982541E-002 -0.693486433602853     
  0.0000000E+00
   2.68923959925979       4.712325430773474E-002 -0.741879270932312     
  0.0000000E+00
   2.83077852553662       4.717590868034938E-002 -0.791310524019838     
  0.0000000E+00
  -1.41133057653388       5.328695613335258E-002  0.239862086709975     
  0.0000000E+00
  -1.27019751888050       5.331535537532088E-002  0.220529503230081     
  0.0000000E+00
  -1.12906446122711       5.334527294434496E-002  0.200163329325896     
  0.0000000E+00
 -0.987931403573718       5.337670884042482E-002  0.178763564997420     
  0.0000000E+00
 -0.846798345920330       5.340966306356046E-002  0.156330210244654     
  0.0000000E+00
 -0.705665288266942       5.344413561375186E-002  0.132863265067600     
  0.0000000E+00
 -0.564532230613553       5.348012649099904E-002  0.108362729466254     
  0.0000000E+00
 -0.423399172960165       5.351763569530199E-002  8.282860344061937E-002
  0.0000000E+00
 -0.282266115306777       5.355666322666072E-002  5.626088699069243E-002
  0.0000000E+00
 -0.141133057653388       5.359720908507522E-002  2.865958011647507E-002
  0.0000000E+00
  0.000000000000000E+000  5.363927327054550E-002  2.468281796907945E-005
  0.0000000E+00
  0.141133057653388       5.368285578307155E-002 -2.964380490482910E-002
  0.0000000E+00
  0.282266115306777       5.372795662265338E-002 -6.034588305191591E-002
  0.0000000E+00
  0.423399172960165       5.377457578929098E-002 -9.208155162329312E-002
  0.0000000E+00
  0.564532230613553       5.382271328298436E-002 -0.124850810618959     
  0.0000000E+00
  0.705665288266942       5.387236910373351E-002 -0.158653660038919     
  0.0000000E+00
  0.846798345920330       5.392354325153843E-002 -0.193490099883167     
  0.0000000E+00
  0.987931403573718       5.397623572639913E-002 -0.229360130151704     
  0.0000000E+00
   1.12906446122711       5.403044652831561E-002 -0.266263750844534     
  0.0000000E+00
   1.27019751888050       5.408617565728785E-002 -0.304200961961651     
  0.0000000E+00
   1.41133057653388       5.414342311331588E-002 -0.343171763503062     
  0.0000000E+00
   1.55246363418727       5.420218889639968E-002 -0.383176155468757     
  0.0000000E+00
   1.69359669184066       5.426247300653925E-002 -0.424214137858751     
  0.0000000E+00
   1.83472974949405       5.432427544373460E-002 -0.466285710673027     
  0.0000000E+00
   1.97586280714744       5.438759620798572E-002 -0.509390873911599     
  0.0000000E+00
   2.11699586480082       5.445243529929261E-002 -0.553529627574459     
  0.0000000E+00
   2.25812892245421       5.451879271765528E-002 -0.598701971661612     
  0.0000000E+00
   2.39926198010760       5.458666846307372E-002 -0.644907906173049     
  0.0000000E+00
   2.54039503776099       5.465606253554794E-002 -0.692147431108779     
  0.0000000E+00
   2.68152809541438       5.472697493507794E-002 -0.740420546468801     
  0.0000000E+00
   2.82266115306777       5.479940566166371E-002 -0.789727252253112     
  0.0000000E+00
  -1.40679143645181       6.036679687030346E-002  0.239795323526618     
  0.0000000E+00
  -1.26611229280663       6.040443932667780E-002  0.220446331502581     
  0.0000000E+00
  -1.12543314916145       6.044408207354114E-002  0.200069149279361     
  0.0000000E+00
 -0.984754005516266       6.048572511089347E-002  0.178663776856958     
  0.0000000E+00
 -0.844074861871085       6.052936843873478E-002  0.156230214235373     
  0.0000000E+00
 -0.703395718225904       6.057501205706509E-002  0.132768461414605     
  0.0000000E+00
 -0.562716574580723       6.062265596588439E-002  0.108278518394656     
  0.0000000E+00
 -0.422037430935543       6.067230016519268E-002  8.276038517552387E-002
  0.0000000E+00
 -0.281358287290362       6.072394465498997E-002  5.621406175720978E-002
  0.0000000E+00
 -0.140679143645181       6.077758943527625E-002  2.863954813970970E-002
  0.0000000E+00
  0.000000000000000E+000  6.083323450605151E-002  3.684432303074914E-005
  0.0000000E+00
  0.140679143645181       6.089087986731577E-002 -2.959404969283241E-002
  0.0000000E+00
  0.281358287290361       6.095052551906902E-002 -6.025313390787623E-002
  0.0000000E+00
  0.422037430935542       6.101217146131126E-002 -9.194040832210426E-002
  0.0000000E+00
  0.562716574580723       6.107581769404249E-002 -0.124655872935515     
  0.0000000E+00
  0.703395718225904       6.114146421726272E-002 -0.158399527748108     
  0.0000000E+00
  0.844074861871085       6.120911103097193E-002 -0.193171372759881     
  0.0000000E+00
  0.984754005516266       6.127875813517014E-002 -0.228971407970841     
  0.0000000E+00
   1.12543314916145       6.135040552985735E-002 -0.265799633380981     
  0.0000000E+00
   1.26611229280663       6.142405321503354E-002 -0.303656048990304     
  0.0000000E+00
   1.40679143645181       6.149970119069872E-002 -0.342540654798809     
  0.0000000E+00
   1.54747058009699       6.157734945685289E-002 -0.382453450806496     
  0.0000000E+00
   1.68814972374217       6.165699801349606E-002 -0.423394437013368     
  0.0000000E+00
   1.82882886738735       6.173864686062822E-002 -0.465363613419420     
  0.0000000E+00
   1.96950801103253       6.182229599824936E-002 -0.508360980024653     
  0.0000000E+00
   2.11018715467771       6.190794542635950E-002 -0.552386536829072     
  0.0000000E+00
   2.25086629832289       6.199559514495864E-002 -0.597440283832674     
  0.0000000E+00
   2.39154544196807       6.208524515404676E-002 -0.643522221035456     
  0.0000000E+00
   2.53222458561326       6.217689545362387E-002 -0.690632348437422     
  0.0000000E+00
   2.67290372925844       6.227054604368998E-002 -0.738770666038569     
  0.0000000E+00
   2.81358287290362       6.236619692424508E-002 -0.787937173838900     
  0.0000000E+00
  -1.40174529825995       6.731876110903115E-002  0.239704599516287     
  0.0000000E+00
  -1.26157076843395       6.736712680355508E-002  0.220339336414220     
  0.0000000E+00
  -1.12139623860796       6.741804552094410E-002  0.199951862011883     
  0.0000000E+00
 -0.981221708781962       6.747151726119821E-002  0.178542176309271     
  0.0000000E+00
 -0.841047178955967       6.752754202431739E-002  0.156110279306388     
  0.0000000E+00
 -0.700872649129973       6.758611981030166E-002  0.132656171003234     
  0.0000000E+00
 -0.560698119303978       6.764725061915100E-002  0.108179851399806     
  0.0000000E+00
 -0.420523589477984       6.771093445086541E-002  8.268132049610699E-002
  0.0000000E+00
 -0.280349059651989       6.777717130544492E-002  5.616057829213794E-002
  0.0000000E+00
 -0.140174529825994       6.784596118288951E-002  2.861762478789309E-002
  0.0000000E+00
  0.000000000000000E+000  6.791730408319917E-002  5.245998337954916E-005
  0.0000000E+00
  0.140174529825994       6.799120000637392E-002 -2.953491612140624E-002
  0.0000000E+00
  0.280349059651989       6.806764895241374E-002 -6.014450352646428E-002
  0.0000000E+00
  0.420523589477984       6.814665092131865E-002 -9.177630223179634E-002
  0.0000000E+00
  0.560698119303978       6.822820591308863E-002 -0.124430312237397     
  0.0000000E+00
  0.700872649129973       6.831231392772370E-002 -0.158106533543272     
  0.0000000E+00
  0.841047178955967       6.839897496522385E-002 -0.192804966149419     
  0.0000000E+00
  0.981221708781962       6.848818902558908E-002 -0.228525610055838     
  0.0000000E+00
   1.12139623860796       6.857995610881938E-002 -0.265268465262528     
  0.0000000E+00
   1.26157076843395       6.867427621491477E-002 -0.303033531769492     
  0.0000000E+00
   1.40174529825995       6.877114934387524E-002 -0.341820809576726     
  0.0000000E+00
   1.54191982808594       6.887057549570079E-002 -0.381630298684232     
  0.0000000E+00
   1.68209435791193       6.897255467039143E-002 -0.422461999092011     
  0.0000000E+00
   1.82226888773793       6.907708686794713E-002 -0.464315910800062     
  0.0000000E+00
   1.96244341756392       6.918417208836793E-002 -0.507192033808384     
  0.0000000E+00
   2.10261794738992       6.929381033165380E-002 -0.551090368116979     
  0.0000000E+00
   2.24279247721591       6.940600159780475E-002 -0.596010913725845     
  0.0000000E+00
   2.38296700704191       6.952074588682078E-002 -0.641953670634983     
  0.0000000E+00
   2.52314153686790       6.963804319870188E-002 -0.688918638844394     
  0.0000000E+00
   2.66331606669390       6.975789353344808E-002 -0.736905818354074     
  0.0000000E+00
   2.80349059651989       6.988029689105935E-002 -0.785915209164031     
  0.0000000E+00
  -1.39622257302881       7.414464587055414E-002  0.239588588627383     
  0.0000000E+00
  -1.25660031572593       7.420527494265136E-002  0.220207537589655     
  0.0000000E+00
  -1.11697805842305       7.426908136730595E-002  0.199810795070114     
  0.0000000E+00
 -0.977355801120169       7.433606514451793E-002  0.178398361068755     
  0.0000000E+00
 -0.837733543817288       7.440622627428731E-002  0.155970235585581     
  0.0000000E+00
 -0.698111286514407       7.447956475661405E-002  0.132526418620595     
  0.0000000E+00
 -0.558489029211525       7.455608059149818E-002  0.108066910173791     
  0.0000000E+00
 -0.418866771908644       7.463577377893971E-002  8.259171024517009E-002
  0.0000000E+00
 -0.279244514605763       7.471864431893861E-002  5.610081883473583E-002
  0.0000000E+00
 -0.139622257302881       7.480469221149490E-002  2.859423594248689E-002
  0.0000000E+00
  0.000000000000000E+000  7.489391745660857E-002  7.196156842148582E-005
  0.0000000E+00
  0.139622257302881       7.498632005427963E-002 -2.946600428745860E-002
  0.0000000E+00
  0.279244514605762       7.508190000450807E-002 -6.001966162515515E-002
  0.0000000E+00
  0.418866771908644       7.518065730729390E-002 -9.158901044466639E-002
  0.0000000E+00
  0.558489029211525       7.528259196263709E-002 -0.124174050745992     
  0.0000000E+00
  0.698111286514406       7.538770397053768E-002 -0.157774782529135     
  0.0000000E+00
  0.837733543817288       7.549599333099566E-002 -0.192391205794092     
  0.0000000E+00
  0.977355801120169       7.560746004401103E-002 -0.228023320540865     
  0.0000000E+00
   1.11697805842305       7.572210410958377E-002 -0.264671126769452     
  0.0000000E+00
   1.25660031572593       7.583992552771389E-002 -0.302334624479856     
  0.0000000E+00
   1.39622257302881       7.596092429840140E-002 -0.341013813672074     
  0.0000000E+00
   1.53584483033169       7.608510042164629E-002 -0.380708694346110     
  0.0000000E+00
   1.67546708763458       7.621245389744857E-002 -0.421419266501957     
  0.0000000E+00
   1.81508934493746       7.634298472580824E-002 -0.463145530139624     
  0.0000000E+00
   1.95471160224034       7.647669290672529E-002 -0.505887485259104     
  0.0000000E+00
   2.09433385954322       7.661357844019971E-002 -0.549645131860398     
  0.0000000E+00