 variables=y,z
 zone,t="endshk"
  0.000000000000000E+000  0.000000000000000E+000  8.031395573340422E-003
  7.196156842081304E-008  1.593585130599003E-002  5.756925473665043E-007
  2.371580265256792E-002  1.942962347361952E-006  3.137368506769319E-002
  4.605540378932034E-006  3.891193400598495E-002  8.995196052601631E-006
  4.633298492206231E-002  1.554369877889562E-005  5.363927327054436E-002
  2.468281796833887E-005  6.083323450605020E-002  3.684432303145627E-005
  6.791730408319895E-002  5.245998337877270E-005  7.489391745660970E-002
  7.196156842081305E-005  8.176551008090154E-002  9.578084756810214E-005
  8.853451741069361E-002  1.243495902311649E-004  9.520337490060499E-002
  1.580995658205263E-004  0.101774518005255       1.974625437467109E-004
  0.108250382179262       2.428702934202440E-004  0.114633402877246     
  2.947545842516502E-004  0.120926015553826       3.535471856514544E-004
  0.127130655663620       4.196798670301816E-004  0.133249758661248     
  4.935843977983566E-004  0.139285760001330       5.756925473665044E-004
  0.145241095138483       6.664360851451495E-004  0.151118199527328     
  7.662467805448171E-004  0.156919508622483       8.755564029760323E-004
  0.162647457878568       9.947967218493195E-004  0.168304482750201     
  1.124399506575204E-003  0.173893018692002       1.264796526564210E-003
  0.179415501158589       1.416419551226863E-003  0.184874365604582     
  1.579700349973687E-003  0.190272047484601       1.755070692215209E-003
  0.195610982253263       1.942962347361952E-003  0.200893605365189     
  2.143807084824441E-003  0.206122352274996       2.358036674013202E-003
  0.211299658437305       2.586082884338758E-003  0.216427959306735     
  2.828377485211635E-003  0.221509690337904       3.085352246042359E-003
  0.226547286985432       3.357438936241453E-003  0.231543184703937     
  3.645069325219443E-003  0.236499818948040       3.948675182386853E-003
  0.241419625172358       4.268688277154209E-003  0.246305038831512     
  4.605540378932035E-003  0.251158495380119       4.959663257130856E-003
  0.255982430272800       5.331488681161196E-003  0.260779278964174     
  5.721448420433583E-003  0.265551476908858       6.129974244358537E-003
  0.270301459561474       6.557497922346588E-003  0.275031662376639     
  7.004451223808258E-003  0.279744520808973       7.471265918154073E-003
  0.284442470313095       7.958373774794556E-003  0.289127946343624     
  8.466206563140233E-003  0.293803384355179       8.995196052601628E-003
  0.298471219802379       9.545774012589270E-003  0.303133888139843     
  1.011837221251368E-002  0.307793824822191       1.071342242178538E-002
  0.312453465304041       1.133135640981490E-002  0.317115245040013     
  1.197260594601277E-002  0.321781543612995       1.263760934670299E-002
  0.326452746871062       1.332703854920483E-002  0.331126749391497     
  1.404185741188840E-002  0.335801288821897       1.478304818176251E-002
  0.340474102809862       1.555159310583589E-002  0.345142929002989     
  1.634847443111734E-002  0.349805505048878       1.717467440461562E-002
  0.354459568595126       1.803117527333950E-002  0.359102857289333     
  1.891895928429774E-002  0.363733108779095       1.983900868449912E-002
  0.368348060712013       2.079230572095240E-002  0.372945450735684     
  2.177983264066636E-002  0.377523016497706       2.280257169064976E-002
  0.382078495645679       2.386150511791137E-002  0.386609625827200     
  2.495761516945997E-002  0.391114144689868       2.609188409230432E-002
  0.395589789881281       2.726529413345318E-002  0.400034299049038     
  2.847882753991534E-002  0.404445409840737       2.973346655869956E-002
  0.408820859903976       3.103019343681459E-002  0.413158386886355     
  3.236999042126924E-002  0.417455728435471       3.375383975907225E-002
  0.421710622198923       3.518272369723238E-002  0.425920805824309     
  3.665762448275844E-002  0.430084016959227       3.817952436265917E-002
  0.434197993251277       3.974940558394333E-002  0.438260472348055     
  4.136825039361970E-002  0.442269191897162       4.303704103869707E-002
  0.446221889546195       4.475675976618418E-002  0.450116302942753     
  4.652838882308982E-002  0.453950169734434       4.835291045642275E-002
  0.457721227568836       5.023130691319173E-002  0.461427214093558     
  5.216456044040554E-002  0.465065866956199       5.415365328507296E-002
  0.468634923804356       5.619956769420272E-002  0.472132122285628     
  5.830328591480365E-002  0.475555200047614       6.046579019388446E-002
  0.478901894737912       6.268806277845396E-002  0.482169944004120     
  6.497108591552088E-002  0.485357085493837       6.731584185209404E-002
  0.488461056854662       6.972331283518216E-002  0.491479595734192     
  7.219448111179405E-002  0.494410439780025       7.473032892893845E-002
  0.497251326639762       7.733183853362414E-002  0.499999993960999     
  7.999999217285989E-002
 zone,t="tfct"
  0.000000000000000E+000  0.239999994635582       1.572572721468459E-002
  0.239997297355854       3.057753152054438E-002  0.239978416397758     
  4.461838237570981E-002  0.239927168082926       5.791124923831131E-002
  0.239827368732991       7.051910156647925E-002  0.239662834669584     
  8.250490881834416E-002  0.239417382214338       9.393164045203642E-002
  0.239074827688884       0.104862265925686       0.238618987414855     
  0.115359754697425       0.238033677713883       0.125487076225382     
  0.237302714907599       0.135307199967688       0.236409915317637     
  0.144883095382473       0.235339095265628       0.154277731927868     
  0.234074071073204       0.163554079062004       0.232598659061998     
  0.172775106243011       0.230896675553640       0.182003782929018     
  0.228951936869765       0.191303078578158       0.226748259332003     
  0.200735962648559       0.224269459261987       0.210364707705543     
  0.221499479570628       0.220232368386389       0.218425754069633     
  0.230360822387831       0.215039563322469       0.240770857553641     
  0.211332385862365       0.251483261727588       0.207295700222548     
  0.262518822753446       0.202920984936245       0.273898328474984     
  0.198199718536683       0.285642566735974       0.193123379557090     
  0.297772325380188       0.187683446530692       0.310308392251397     
  0.181871397990718       0.323271555193372       0.175678712470395     
  0.336682602049884       0.169096868502950       0.350562320664705     
  0.162117344621609       0.364931498881606       0.154731619359602     
  0.379810924544358       0.146931171250154       0.395221385496732     
  0.138707478826493       0.411183669582500       0.130052020621847     
  0.427718564645434       0.120956275169442       0.444846858529304     
  0.111411721002507       0.462589339077881       0.101409836654268     
  0.480966794134937       9.094210065795258E-002  0.500000000000000     
  7.999999821186066E-002
 zone,t="fct"
  0.000000000000000E+000  0.239999994635582       8.022725476461889E-003
  0.239998618576180       1.590722200433991E-002  0.239997066623248     
  2.365315758459144E-002  0.239987219288736       3.126231897514369E-002
  0.239975916962116       3.873649144983311E-002  0.239948636653534     
  4.607744174871389E-002  0.239916213848715       5.328695613335145E-002
  0.239862086709975       6.036679687030218E-002  0.239795323526618     
  6.731876110903093E-002  0.239704599516288       7.414464587055523E-002
  0.239588588627383       8.084624224910553E-002  0.239451349370100     
  8.742546901428183E-002  0.239269871953581       9.388403870825721E-002
  0.239076254710475       0.100224157655786       0.238812410613722     
  0.106447465378599       0.238530601264801       0.112556228109946     
  0.238189994271516       0.118552416289501       0.237803239994451     
  0.124438044933587       0.237378431162367       0.130215794139197     
  0.236872802054636       0.135887212030500       0.236345055738416     
  0.141455662519321       0.235722366351809       0.146922722537236     
  0.235064451570597       0.152291402044916       0.234341538084187     
  0.157564434780131       0.233551317795931       0.162743817384253     
  0.232727531967926       0.167833858106338       0.231808713082023     
  0.172835231842498       0.230884005418669       0.177753947481144     
  0.229847495320536       0.182589781691742       0.228813071265391     
  0.187349082950656       0.227685247645687       0.192031959420029     
  0.226556721953999       0.196645030811119       0.225344485950473     
  0.201188118279507       0.224139383960621       0.205668910283617     
  0.222850357947456       0.210086316194239       0.221579566729234     
  0.214449239443480       0.220227168962411       0.218756700248113     
  0.218885417097612       0.223016054453334       0.217495099499690     
  0.227229665618312       0.216086385875976       0.231400979818496     
  0.214669146880977       0.235537672346309       0.213196005527060     
  0.239639120228741       0.211735415346397       0.243714716614316     
  0.210223070586082       0.247766099973673       0.208696414126659     
  0.251796291876071       0.207171608862586       0.255816486331698     
  0.205577924037888       0.259824580477418       0.203989036016052     
  0.263827837265798       0.202377885228319       0.267834244240771     
  0.200715658845489       0.271843252130229       0.199052353363929     
  0.275863936260075       0.197350102648764       0.279901877171806     
  0.195604739825565       0.283957567131101       0.193851705139791     
  0.288041429607726       0.192047541715249       0.292157006724889     
  0.190201794859188       0.296294482441863       0.188346226957231     
  0.300439034187397       0.186447090567637       0.304573665177554     
  0.184530167480312       0.308693093883150       0.182620292569795     
  0.312802724274061       0.180679820451442       0.316899987863194     
  0.178722499925970       0.320979987883689       0.176773426450389     
  0.325046606192454       0.174807556860008       0.329101006274169     
  0.172817747339174       0.333136490078568       0.170837221507157     
  0.337153680782080       0.168859982918120       0.341161198340225     
  0.166844771711165       0.345148880617546       0.164839534828621     
  0.349116328122024       0.162844473158142       0.353071133118319     
  0.160827820667170       0.357010716233352       0.158802883813074     
  0.360930830962042       0.156787953665740       0.364831775263413     
  0.154782877074900       0.368727346953154       0.152741669170357     
  0.372606686910674       0.150707948869358       0.376470680290197     
  0.148682273918228       0.380322831044366       0.146657995670348     
  0.384176593738170       0.144601460232144       0.388022762643550     
  0.142548977169824       0.391864669028663       0.140498768773767     
  0.395708452662792       0.138443369412325       0.399572364959097     
  0.136348184838025       0.403449161236484       0.134246013997903     
  0.407346447767815       0.132132732433547       0.411273883071346     
  0.130002394728983       0.415262515131013       0.127808272433078     
  0.419308669175896       0.125582507642107       0.423429545536446     
  0.123315638558648       0.427646282208689       0.120996037299338     
  0.432011632942361       0.118564009881365       0.436537132925208     
  0.116042224582046       0.441264655900590       0.113407864182821     
  0.446258113275460       0.110616161062717       0.451609200491094     
  0.107599618064596       0.457388039935342       0.104341940332885     
  0.463729629923924       0.100760330860439       0.470853500906731     
  9.670259813910620E-002  0.478966252357170       9.208160246134432E-002
  0.488506407013689       8.660761191716664E-002  0.500000000000000     
  7.999999821186066E-002
