 variables=x,y,p,m,<greek>r</greek>,u,v,<greek>t</greek>
 zone nodes=496 ,elements=  465 
 ZONETYPE=FEquadrilateral, DATAPACKING=POINT
  -1.42731608787298        118.054512247557        1.92029613729324     
   9.02475181942498       1.835950017022716E-005   3449.30485905418     
   169.118813185018        2.80695416299408     
  -1.28458447908568        118.073775236185        2.03372060850508     
   8.93566208807166       1.908402452107448E-005   3446.49182756556     
   184.909926165109        3.07106781131175     
  -1.14185287029839        118.094090893884        2.26902340440563     
   8.76265912110998       2.052368641747251E-005   3440.65610122577     
   215.535292556784        3.58453331199500     
 -0.999121261511087        118.115459220656        2.51547693092381     
   8.59562611118301       2.194626480972686E-005   3434.54382648320     
   245.018620108504        4.08053880434218     
 -0.856389652723789        118.137880216499        2.77293077237368     
   8.43374450863980       2.334698073703877E-005   3428.15873378560     
   273.493872729864        4.56131909152471     
 -0.713658043936491        118.161353881415        3.04122885433789     
   8.27644064089002       2.472181318610873E-005   3421.50469392245     
   301.070676418785        5.02871224159027     
 -0.570926435149193        118.185880215402        3.32020967197203     
   8.12330955549615       2.606744290242628E-005   3414.58571236282     
   327.839464701848        5.48424265320400     
 -0.428194826361894        118.211459218461        3.60970652374645     
   7.97406289329595       2.738119193825310E-005   3407.40592345839     
   353.875379906336        5.92918413958118     
 -0.285463217574596        118.238090890593        3.90954775002504     
   7.82849277508648       2.866096144853010E-005   3399.96958452645     
   379.241267761104        6.36460841956734     
 -0.142731608787298        118.265775231796        4.21955697584677     
   7.68644656675300       2.990516973256201E-005   3392.28106982868     
   403.990002072181        6.79142280630880     
  2.220446049250313E-016   118.294512242071        4.53955335732913     
   7.54780915313969       3.111269204965137E-005   3384.34486446016     
   428.166308092905        7.21039979961397     
  0.142731608787298        118.324301921419        4.86935183107711     
   7.41249046225306       3.228280332276643E-005   3376.16555816374     
   451.808206365581        7.62220054041482     
  0.285463217574596        118.355144269838        5.20876336599855     
   7.28041669808925       3.341512449188356E-005   3367.74783908484     
   474.948166120391        8.02739356263766     
  0.428194826361895        118.387039287329        5.55759521693371     
   7.15152421285152       3.450957298755499E-005   3359.09648748117     
   497.614034178248        8.42646990672082     
  0.570926435149193        118.419986973892        5.91565117949851     
   7.02575526699305       3.556631756197081E-005   3350.21636940241     
   519.829788713356        8.81985539242848     
  0.713658043936491        118.453987329528        6.28273184559854     
   6.90305514286702       3.658573753383125E-005   3341.11243035319     
   541.616155196827        9.20792065490244     
  0.856389652723789        118.489040354235        6.65863485902081     
   6.78337022885641       3.756838636736787E-005   3331.78968895422     
   562.991113006629        9.59098940542906     
  0.999121261511087        118.525146048014        7.04315517053578     
   6.66664679727642       3.851495940838315E-005   3322.25323061549     
   583.970314642724        9.96934527270592     
   1.14185287029839        118.562304410865        7.43608529204923     
   6.55283027517917       3.942626553424988E-005   3312.50820123308     
   604.567434589909        10.3432375012427     
   1.28458447908568        118.600515442788        7.83721554920174     
   6.44186486185799       4.030320243334496E-005   3302.55980092447     
   624.794461159195        10.7128857234399     
   1.42731608787298        118.639779143783        8.24633433196932     
   6.33369338644752       4.114673520827484E-005   3292.41327781341     
   644.661941825766        11.0784839763218     
   1.57004769666028        118.680095513850        8.66322834277114     
   6.22825732800246       4.195787799039969E-005   3282.07392187662     
   664.179190411217        11.4402040986932     
   1.71277930544758        118.721464552989        9.08768284160942     
   6.12549694170443       4.273767825737794E-005   3271.54705886407     
   683.354462781533        11.7981986172714     
   1.85551091423488        118.763886261200        9.51948188786363     
   6.02535145049771       4.348720355745291E-005   3260.83804430231     
   702.195106429230        12.1526032091832     
   1.99824252302217        118.807360638483        9.95840857822846     
   5.92775927306173       4.420753036086833E-005   3249.95225759333     
   720.707688275751        12.5035388114080     
   2.14097413180947        118.851887684838        10.4042452804870     
   5.83265826752683       4.489973477921597E-005   3238.89509621681     
   738.898104229052        12.8511134347309     
   2.28370574059677        118.897467400265        10.8567738627362     
   5.73998597666970       4.556488491499076E-005   3227.67197004513     
   756.771673383368        13.1954237292079     
   2.42643734938407        118.944099784764        11.3157759176822     
   5.64967986496387       4.620403462576800E-005   3216.28829578059     
   774.333219233651        13.5365563397549     
   2.56916895817137        118.991784838335        11.7810329817301     
   5.56167754123868       4.681821850938133E-005   3204.74949152182     
   791.587139867577        13.8745890838066     
   2.71190056695866        119.040522560978        12.2523267485554     
   5.47591696318020       4.740844793734395E-005   3193.06097146698     
   808.537468762075        14.2095919774993     
   2.85463217574596        119.090312952692        12.4901692690435     
   5.43385808173850       4.769488866113290E-005   3187.16225761522     
   816.899960199695        14.3759772003706     
  -1.38760711659660        118.056550193125        2.03479077445445     
   8.94578486605788       1.913479398130030E-005   3446.72899728883     
   184.796602997346        3.06897850085921     
  -1.24164165782194        118.076269879721        2.27219290373584     
   8.78619879632364       2.065610433724204E-005   3441.24714939113     
   215.203421330456        3.57841525622723     
  -1.09528424148561        118.097207663232        2.51943765274283     
   8.62390715553448       2.211645888499875E-005   3435.29129920655     
   244.647956025212        4.07350302552723     
 -0.949331891841804        118.119217728331        2.77774112141892     
   8.46633831602493       2.355665246296374E-005   3429.06582417589     
   273.090241144625        4.55341592076793     
 -0.803723823774841        118.142294026192        3.04693653534270     
   8.31288817188457       2.497191419556984E-005   3422.57265243383     
   300.640193997967        5.01999989670934     
 -0.658410618368400        118.166432080444        3.32685286297833     
   8.16314911739065       2.635828984430830E-005   3415.81441136365     
   327.388266076452        5.47478266669714     
 -0.513351650388349        118.191628608277        3.61731488056429     
   8.01684675479072       2.771256667726289E-005   3408.79425024114     
   353.409456293399        5.91903854786895     
 -0.368513205401831        118.217881081006        3.91814343707002     
   7.87379692763724       2.903220150311407E-005   3401.51571936127     
   378.766363060336        6.35383786438807     
 -0.223867079775264        118.245187682533        4.22915550710914     
   7.73387615136961       3.031524872359531E-005   3393.98268580627     
   403.511561551471        6.78008549638954     
 -7.938949767869868E-002   118.273547039953        4.55016442168504     
   7.59700099170429       3.156029149497241E-005   3386.19927156000     
   427.689449941722        7.19855085708041     
  6.493971944364267E-002   118.302958133183        4.88098001907182     
   7.46311373757729       3.276637588097493E-005   3378.16980824562     
   451.337713165807        7.60989168999588     
  0.209137803176614        118.333420209452        5.22140881741337     
   7.33217243707848       3.393294924927888E-005   3369.89880283573     
   474.488488159266        8.01467303292104     
  0.353219551804999        118.364932719629        5.57125419495538     
   7.20414401694248       3.505980334469292E-005   3361.39091110493     
   497.169300030192        8.41338246820174     
  0.497197739943178        118.397495270385        5.93031657812802     
   7.07899959053113       3.614702230873542E-005   3352.65091656231     
   519.403820020908        8.80644248073981     
  0.641083448059651        118.431107587982        6.29839363707407     
   6.95671132386820       3.719493572098730E-005   3343.68371330682     
   541.212483612199        9.19422054410202     
  0.784886329698156        118.465769490648        6.67528048781035     
   6.83725041102125       3.820407658618216E-005   3334.49429172288     
   562.612997959081        9.57703740765712     
  0.928614829783664        118.501480867392        7.06076990002583     
   6.72058583687312       3.917514407915773E-005   3325.08772625584     
   583.620761077173        9.95517394846039     
   1.07227636419520        118.538241661653        7.45465250955431     
   6.60668369488007       4.010897078204244E-005   3315.46916472652     
   604.249210147032        10.3288768699858     
   1.21587746841461        118.576051858632        7.85671703434362     
   6.49550689146473       4.100649409684275E-005   3305.64381880108     
   624.510112488138        10.6983634680448     
   1.35942392130858        118.614911475430        8.26675049294971     
   6.38701511488666       4.186873148978709E-005   3295.61695533909     
   644.413809866436        11.0638256374355     
   1.50292084876795        118.654820553344        8.68453842453777     
   6.28116498002096       4.269675921272352E-005   3285.39388842038     
   663.969424580137        11.4254332568497     
   1.64637281319669        118.695778991821        9.10986530863752     
   6.17791025815149       4.349169476155824E-005   3274.97997196934     
   683.185026281998        11.7833369311877     
   1.78978310671254        118.737786925710        9.54251402556634     
   6.07720207266598       4.425467526225562E-005   3264.38061014739     
   702.067821930306        12.1376710724636     
   1.93315692353257        118.780844790318        9.98226713461987     
   5.97899004605510       4.498686353823135E-005   3253.60118020420     
   720.624194465064        12.4885547711285     
   2.07649674709209        118.824952421795        10.4289064797150     
   5.88322132323880       4.568941180737461E-005   3242.64713252618     
   738.859904976073        12.8360947877443     
   2.21980550990249        118.870109914037        10.8822134940538     
   5.78984188692733       4.636346895282150E-005   3231.52391330318     
   756.780136446196        13.1803865262593     
   2.36308585374701        118.916317363678        11.3419694353259     
   5.69879665374946       4.701016940534428E-005   3220.23697652924     
   774.389584693711        13.5215154923940     
   2.50634016363352        118.963574868686        11.8079555937363     
   5.61002979682477       4.763062734155140E-005   3208.79177835144     
   791.692527854837        13.8595584612217     
   2.64957059718150        119.011882527280        12.2799534958601     
   5.52348504209316       4.822593209481096E-005   3197.19377161707     
   808.692886540947        14.1945844941441     
   2.79083923556566        119.060628079541        12.5044382470285     
   5.45734882533662       4.810319517274653E-005   3189.24490419378     
   817.024970942603        14.3690856474804     
  -1.33518468004799        118.059593092808        2.27397196038453     
   8.79582801926989       2.071484722670795E-005   3441.48929963415     
   215.020013261612        3.57512253217453     
  -1.18637884440014        118.079962268837        2.52329024941327     
   8.64694527873265       2.226125088338594E-005   3435.90145101079     
   244.280174092828        4.06667998206101     
  -1.03752467458809        118.101560329538        2.78247398414711     
   8.49408018484031       2.374152171332185E-005   3429.83649929464     
   272.684728905027        4.54566556913179     
 -0.889317725606887        118.124238666756        3.05260692888410     
   8.34491507738986       2.519844483547075E-005   3423.50670540736     
   300.202948522469        5.01137544331927     
 -0.741666938675065        118.147988216824        3.33350565874723     
   8.19901108831093       2.662727810913987E-005   3416.91274844932     
   326.925600142719        5.46534589199247     
 -0.594497415941569        118.172802249377        3.62498430231955     
   8.05609002659708       2.802415120243328E-005   3410.05640827903     
   352.927690493258        5.90885456208378     
 -0.447745715436262        118.198675770313        3.92685449345436     
   7.91598047714773       2.938597447225329E-005   3402.94026620277     
   378.271647164929        6.34297194608052     
 -0.301359763842970        118.225604942181        4.23892531981168     
   7.77858152770953       3.071035420450660E-005   3395.56750223422     
   403.009765436141        6.76860106480325     
 -0.155294742323544        118.253587016309        4.56100326517838     
   7.64383785331232       3.199551142774789E-005   3387.94175258841     
   427.186113095526        7.18650841857546     
 -9.512645340495063E-003   118.282619916186        4.89289229656571     
   7.51172251249819       3.324020584025742E-005   3380.06700731352     
   450.838018809511        7.59734820744086     
  0.136019080887204        118.312702108711        5.23439388957795     
   7.38222513242685       3.444366440229581E-005   3371.94753612546     
   473.997258520661        8.00168166476693     
  0.281328467170408        118.343832474730        5.58530709729945     
   7.25534382238204       3.560551552461940E-005   3363.58783337865     
   496.691003617853        8.39999252647262     
  0.426439767000245        118.376010211800        5.94542864177179     
   7.13107971637077       3.672572898789006E-005   3354.99257652798     
   518.942585925909        8.79269952472835     
  0.571374059946584        118.409234760581        6.31455302597797     
   7.00943337355521       3.780456164575855E-005   3346.16659416168     
   540.772119599982        9.18016655444977     
  0.716149743539200        118.443505748720        6.69247266390372     
   6.89040249293885       3.884250881467211E-005   3337.11484089721     
   562.197010264876        9.56271100427124     
  0.860782936990898        118.478822947807        7.07897802619104     
   6.77398055540080       3.984026113621551E-005   3327.84237724721     
   583.232374583257        9.94061062836714     
   1.00528781467460        118.515186240158        7.47385779909256     
   6.66015611566016       4.079866661284166E-005   3318.35435311841     
   603.891388127571        10.3141092497422     
   1.14967688320968        118.552595593085        7.87689905436334     
   6.54891254432083       4.171869745978117E-005   3308.65599399349     
   624.185575443497        10.6834215210732     
   1.29396121296725        118.591051038859        8.28788742807764     
   6.44022807561519       4.260142138334640E-005   3298.75258911128     
   644.125053189478        11.0487369205016     
   1.43815063249771        118.630552659072        8.70660730645883     
   6.33407605660707       4.344797688186327E-005   3288.64948115268     
   663.718734940042        11.4102231224656     
   1.58225478837331        118.671100756270        9.13284188752784     
   6.23042533702036       4.425955171826306E-005   3278.35205686954     
   682.974509738981        11.7680289438322     
   1.72627855379172        118.712694711026        9.56637425293811     
   6.12924061732793       4.503736801222534E-005   3267.86573848671     
   701.899361216516        12.1222863070096     
   1.87023074462531        118.755334987729        10.0069857669794     
   6.03048265580695       4.578265264623007E-005   3257.19601845122     
   720.499556008638        12.4731132162118     
   2.01411924455191        118.799022725681        10.4544573057458     
   5.93411061096891       4.649666296490588E-005   3246.34828962750     
   738.780675985059        12.8206148814481     
   2.15794830717883        118.843757440858        10.9085703211913     
   5.84007940753006       4.718062685347016E-005   3235.32807910622     
   756.747761813140        13.1648852386256     
   2.30172301540921        118.889539328120        11.3691058002535     
   5.74834238581500       4.783576545174449E-005   3224.14088295111     
   774.405373503943        13.5060085403664     
   2.44544795953388        118.936368585167        11.8358448532903     
   5.65885116338958       4.846327886650760E-005   3212.79219988401     
   791.757662054249        13.8440604194606     
   2.58912729325882        118.984245410323        12.3085689072104     
   5.57155602961525       4.906434083262736E-005   3201.28752566020     
   808.808428844514        14.1791088949301     
   2.72965384926620        119.032259344879        12.5275873079314     
   5.50517058777361       4.891858590515612E-005   3193.39088151656     
   817.367958115212        14.3569769241338     
  -1.27175886621636        118.063826580514        2.52586128813973     
   8.65612905839469       2.232831517396361E-005   3436.14950373687     
   244.030203332344        4.06224021913906     
  -1.12106832997418        118.084875785288        2.78703452524821     
   8.51667233487651       2.389882297543572E-005   3430.46598974453     
   272.286475395936        4.53822499271770     
 -0.970535910115882        118.107155282071        3.05813860625494     
   8.37217237154326       2.539815701311597E-005   3424.30070661854     
   299.767867520179        5.00299497919379     
 -0.820787094404920        118.130516122705        3.34006297868988     
   8.23052472958289       2.687085533275036E-005   3417.87379521237     
   326.459978918687        5.45608362417818     
 -0.671718959959802        118.154947836027        3.63260821099090     
   8.09141886976965       2.831222512243974E-005   3411.18507435102     
   352.438081045286        5.89877659290505     
 -0.523243257421389        118.180442910030        3.93557441214228     
   7.95467844027312       2.971849840558834E-005   3404.23576134858     
   377.764569865927        6.33214723842882     
 -0.375287370154200        118.206995460233        4.24876105713461     
   7.82021405612312       3.108672533051909E-005   3397.02808117978     
   402.491519679444        6.75709803620561     
 -0.227788972934182        118.234601151076        4.57196651973337     
   7.68799186431182       3.241467625427744E-005   3389.56500182009     
   426.662678505299        7.17439303941932     
 -8.069444234642831E-002   118.263256833656        4.90498786991064     
   7.55801204565817       3.370075157132193E-005   3381.85004830340     
   450.315009416900        7.58468299510460     
  6.604216808945855E-002   118.292960149824        5.24762077218283     
   7.43029413777446       3.494389842082710E-005   3373.88716990894     
   473.479902987474        7.98852513442211     
  0.212460547824607        118.323709376786        5.59965937204250     
   7.30486709234277       3.614353389807468E-005   3365.68064432711     
   496.184145891942        8.38639900610861     
  0.358595133061463        118.355503277686        5.96089625041366     
   7.18176260146233       3.729947519906185E-005   3357.23500713698     
   518.450697174303        8.77871918156003     
  0.504475925542659        118.388340988586        6.33112242072900     
   7.06101072027833       3.841187655104907E-005   3348.55499912155     
   540.299316434499        9.16584554781786     
  0.650129164662971        118.422221932364        6.71012736240602     
   6.94263710337475       3.948117275770075E-005   3339.64552624921     
   561.747076080468        9.54809170971604     
  0.795577882469282        118.457145752692        7.09769908516759     
   6.82666137408546       4.050802908595534E-005   3330.51162874053     
   582.808782006480        9.92573189706896     
  0.940842364544241        118.493112263140        7.49362421932979     
   6.71309628478840       4.149329714048292E-005   3321.15845671132     
   603.497321345022        10.2990066805036     
   1.08594053476341        118.530121407732        7.89768812765250     
   6.60194742345508       4.243797631329821E-005   3311.59125062068     
   623.823951679695        10.6681277305492     
   1.23088827811032        118.568173230263        8.30967503498394     
   6.49321329057687       4.334318036120232E-005   3301.81532525821     
   643.798542931448        11.0332818030840     
   1.37569971280118        118.607267850336        8.72936817236530     
   6.38688561992511       4.421010864772294E-005   3291.83605636086     
   663.429780714810        11.3946340949547     
   1.52038831562369        118.647405628081        9.15654978573498     
   6.28294986852016       4.504002107069956E-005   3281.65886895117     
   682.725344103913        11.7523311846131     
   1.66496324687201        118.688586354365        9.59100200294831     
   6.18138570055425       4.583421972771445E-005   3271.28922717770     
   701.692029445322        12.1065030804639     
   1.80943590075741        118.730810402048        10.0325057500293     
   6.08216772654522       4.659402692703725E-005   3260.73262706000     
   720.335907738974        12.4572658332874     
   1.95381232532724        118.774076974400        10.4808430522026     
   5.98526513878690       4.732076390796418E-005   3249.99465330827     
   738.662380293111        12.8047222116626     
   2.09810654993902        118.818388915113        10.9357923816944     
   5.89064591541461       4.801577983571778E-005   3239.08071045681     
   756.676369731771        13.1489658888378     
   2.24232286571482        118.863745155090        11.3971356836124     
   5.79827192851483       4.868037818330735E-005   3227.99640644686     
   774.382273287378        13.4900791974913     
   2.38646789530966        118.910145993582        11.8646539567887     
   5.70810319916693       4.931585168836472E-005   3216.74728771220     
   791.784106718222        13.8281365137669     
   2.53054763331944        118.957591731025        12.3381285984452     
   5.62009744946852       4.992346536029436E-005   3205.33889776262     
   808.885544999819        14.1632047137237     
   2.67032199712188        119.004882528042        12.5546882175812     
   5.55328053688149       4.976311508029627E-005   3197.50400925684     
   817.569233123853        14.3426561120639     
  -1.19935963733887        118.069267111622        2.79044695846411     
   8.52546729071859       2.397433079862804E-005   3430.72088053922     
   271.976700509798        4.53274808647752     
  -1.04747186495976        118.091012633414        3.06343749121168     
   8.39436208038587       2.556814071039279E-005   3424.94963699529     
   299.343123187573        4.99500028395610     
 -0.895861368561246        118.113984139319        3.34642387337458     
   8.25734174185229       2.708560304973214E-005   3418.69113759893     
   325.999419118921        5.44713792058079     
 -0.745102071794916        118.138033824132        3.64008162475230     
   8.12246382201144       2.857305155583488E-005   3412.17305277804     
   351.948311793788        5.88894336097727     
 -0.595087647218901        118.163151073839        3.94419642599299     
   7.98951856659346       3.002586317282343E-005   3405.39462396513     
   377.252382466456        6.32149695148180     
 -0.445727872085535        118.189328022475        4.25855575188726     
   7.85841049506495       3.144039130426632E-005   3398.35671567268     
   401.963606512160        6.74570309719624     
 -0.296945835021466        118.216558678412        4.58294812315231     
   7.72911617026099       3.281384152894256E-005   3391.06135430315     
   426.125458841988        7.16232455737559     
 -0.148675259843956        118.244838602963        4.91716244625433     
   7.60165622123959       3.414416211330888E-005   3383.51141509514     
   449.774540563195        7.57200900255924     
 -8.586079355075571E-004   118.274164588277        5.26098746040003     
   7.47607641849828       3.542994408163234E-005   3375.71040280317     
   472.941849078720        7.97530979437364     
  0.146553864172818        118.304534256681        5.61421191992131     
   7.35243476503884       3.667033317226607E-005   3367.66229585085     
   495.653742695213        8.37270178513976     
  0.293605473551680        118.335945899959        5.97662341633742     
   7.23079317811531       3.786494357046004E-005   3359.37143343580     
   517.932792868021        8.76459532004978     
  0.440334060653725        118.368398320840        6.34800914031653     
   7.11121166827468       3.901378849905893E-005   3350.84243393652     
   539.798365374860        9.15134577441017     
  0.586772805441792        118.401890716072        6.72815532557245     
   6.99374489556467       4.011721219149737E-005   3342.08013362381     
   561.267166413445        9.53326254472763     
  0.732950895514151        118.436422585462        7.11684729907338     
   6.87844002751165       4.117583187287046E-005   3333.08954078070     
   582.353659893679        9.91061592083979     
  0.878894086647847        118.471993662028        7.51386948324880     
   6.76533561604931       4.219048629250004E-005   3323.87580054908     
   603.070415672569        10.2836428280867     
   1.02462517361344        118.508603857922        7.91900543456206     
   6.65446116270607       4.316219074295065E-005   3314.44416757841     
   623.428398151232        10.6525515916378     
   1.17016438730368        118.546253222375        8.33203791200905     
   6.54583715140927       4.409209804167608E-005   3304.79998436407     
   643.437206921308        11.0175259143409     
   1.31552973107740        118.584941908877        8.75274897003696     
   6.43947539085880       4.498146493791091E-005   3294.94866376877     
   663.105278562537        11.3787282173314     
   1.46073816080066        118.624670332536        9.18091991151982     
   6.33537957095782       4.583162284004714E-005   3284.89567435333     
   682.440063240088        11.7363025704445     
   1.60580196229390        118.665438356846        9.61633219748031     
   6.23354583027259       4.664395626812966E-005   3274.64652829467     
   701.448143639712        12.0903766662918     
   1.75073615307967        118.707246765284        10.0587659172901     
   6.13396365242781       4.741987645998273E-005   3264.20677196821     
   720.135406327877        12.4410646747776     
   1.89555059456032        118.750095406342        10.5080019985651     
   6.03661636900674       4.816081149112729E-005   3253.58197685865     
   738.507081896515        12.7884679127218     
   2.04025177505178        118.793982995605        10.9638230052185     
   5.94148078488531       4.886817348418702E-005   3242.77782379983     
   756.567835873694        13.1326760058867     
   2.18485858654079        118.838914042873        11.4260051755458     
   5.84853297829077       4.954340381559219E-005   3231.79972477956     
   774.322026027926        13.4737726475229     
   2.32937470204966        118.884886818927        11.8943316490037     
   5.75774104962648       5.018788074103400E-005   3220.65337176911     
   791.773479275229        13.8118297317660     
   2.47380780796145        118.931901728301        12.3685838643946     
   5.66907110142709       5.080296780984606E-005   3209.34436152495     
   808.925736229401        14.1469128786670     
   2.61281887103381        118.978478541914        12.5838242106942     
   5.60178160362450       5.063155890414337E-005   3201.57687639791     
   817.695067876714        14.3272756307231     
  -1.11956139634398        118.075912790257        3.06771408867289     
   8.40282624853968       2.565205948890423E-005   3425.21219876246     
   298.981801381773        4.98862101655185     
 -0.966976686864816        118.098362093803        3.35249497450447     
   8.27916435565765       2.726846319872835E-005   3419.35952867172     
   325.551242527329        5.43863733389770     
 -0.814731515277922        118.122029510439        3.64730411424210     
   8.14887752816848       2.880303862752144E-005   3413.01368170831     
   351.465583758756        5.87948447775390     
 -0.663359467124286        118.146769654877        3.95261583272732     
   8.02013277868177       3.030414518288013E-005   3406.40940869202     
   376.742010411645        6.31114840841947     
 -0.512758361855170        118.172572095790        4.26820266151028     
   7.89280022148543       3.176725046120493E-005   3399.54558288490     
   401.432585362827        6.73453919620331     
 -0.362839011184128        118.199429232619        4.59384088842293     
   7.76684926104532       3.318884621458110E-005   3392.42287360902     
   425.580611701124        7.15042050479125     
 -0.213524879334691        118.227335257765        4.92930950793590     
   7.64230992911566       3.456630834744899E-005   3385.04322793127     
   449.222364912721        7.55943795318449     
 -6.474935135743237E-002   118.256285893670        5.27438922870605     
   7.51924749974847       3.589777536914284E-005   3377.40951927339     
   472.388437641955        7.96214118360605     