 variables=x,y,<greek>p,m,r,u,v,<greek>t
 zone nodes=1275 ,elements= 1225 
 ZONETYPE=FEquadrilateral, DATAPACKING=POINT
  0.000000000000000E+000   1.00000000000000        2.44091809235537     
   5.55694915737514       2.152466069519005E-005   2201.90527218931     
  -232.626379447942       -6.03080000933387     
  2.441161994173871E-002  0.997419682341891        2.44663255550050     
   5.55479256582011       2.156064269463474E-005   2201.76190892087     
  -232.842932090101       -6.03676281275037     
  7.932841452977449E-002  0.981224489795918        2.45523424668000     
   5.55027785582101       2.160619031374012E-005   2201.35903552788     
  -234.259413993063       -6.07431650948187     
  4.887900084949433E-002  0.994830180009517        2.45352347777407     
   5.55219947657858       2.160400052771291E-005   2201.58076015531     
  -233.184305048418       -6.04604161432759     
  0.103803193907787       0.978617968072716        2.46222730437362     
   5.54765713471857       2.165012906123152E-005   2201.17556987472     
  -234.602908415569       -6.08365976412002     
  0.158416535742899       0.962448979591837        2.47104779239380     
   5.54294188834870       2.169592717014638E-005   2200.75566550126     
  -236.054120349649       -6.12216641084108     
  7.344862439541909E-002  0.992225117678952        2.46160365244609     
   5.54916923201159       2.165479686602438E-005   2201.36170773265     
  -233.649840403500       -6.05862075845088     
  0.128357867425239       0.975998170262523        2.47041546447779     
   5.54459910718329       2.170153157657933E-005   2200.95400594768     
  -235.070983162569       -6.09631547505834     
  0.182958024062055       0.959813888614110        2.47934756032069     
   5.53985519144206       2.174795391476975E-005   2200.53149280514     
  -236.524868097646       -6.13490261260316     
  0.237242470271624       0.943673469387755        2.48840148052565     
   5.53493094629353       2.179401906255856E-005   2200.09353093260     
  -238.012717838308       -6.17441629166628     
  9.816622183141202E-002  0.989598156485762        2.47089569420776     
   5.54569824714137       2.171315279381184E-005   2201.10433798086     
  -234.239764390501       -6.07450837414798     
  0.153038331157844       0.973358714478867        2.47982170855468     
   5.54110013683283       2.176052076737353E-005   2200.69392366223     
  -235.663872063899       -6.11229200703477     
  0.207603119817427       0.957161406193257        2.48887168976362     
   5.53632737417856       2.180759423837195E-005   2200.26859655563     
  -237.120859417739       -6.15097213082245     
  0.261854028360025       0.941007404268837        2.49804733789616     
   5.53137338612412       2.185432905219748E-005   2199.82771361948     
  -238.611961728974       -6.19058322338551     
  0.315784192335064       0.924897959183673        2.50735019640845     
   5.52623026511970       2.190066981660620E-005   2199.37053765749     
  -240.138476680636       -6.23116171134984     
  0.123077245418127       0.986942918152670        2.48143197413827     
   5.54178012106542       2.177924698182069E-005   2200.80794970164     
  -234.955144227604       -6.09373526209990     
  0.177890078418068       0.970693196249476        2.49047881886007     
   5.53715377347085       2.182727729114928E-005   2200.39461411035     
  -236.382652055246       -6.13162046242562     
  0.232397359202917       0.954485100647275        2.49965338577475     
   5.53235193595217       2.187503083178346E-005   2199.96625985108     
  -237.843181554591       -6.17040638687040     
  0.286592593538578       0.938319780699007        2.50895753508928     
   5.52736800205004       2.192246409008442E-005   2199.52223806068     
  -239.337980553938       -6.21012787031412     
  0.340468985671523       0.922198462119862        2.51839297890671     
   5.52219402949064       2.196952231987147E-005   2199.06180520354     
  -240.868360440252       -6.25082172949167     
  0.394019426174355       0.906122448979592        2.52796126167227     
   5.51682067298939       2.201613878303407E-005   2198.58411700130     
  -242.435699829869       -6.29252688776390     
  0.148227300679069       0.984252912833843        2.49325477248425     
   5.53740569178142       2.185331611126495E-005   2200.47155575472     
  -235.797864008917       -6.11635429735612     
  0.202958638703601       0.967995115444072        2.50242953585217     
   5.53275080737888       2.190204000123735E-005   2200.05508109128     
  -237.229219104322       -6.15435408524556     
  0.257386197710358       0.951778460692050        2.51173586107425     
   5.52791961840883       2.195050476495349E-005   2199.62347712044     
  -238.693742945562       -6.19325901149910     
  0.311503549333061       0.935604075342664        2.52117576951658     
   5.52290548615997       2.199866750804837E-005   2199.17608898904     
  -240.192695859374       -6.23310426896147     
  0.365303967237089       0.919473161071332        2.53075114294684     
   5.51770043487911       2.204647410471968E-005   2198.71216663595     
  -241.727402857202       -6.27392706501364     
  0.418780415161688       0.903386996355122        2.54046370470250     
   5.51229508443643       2.209385843810332E-005   2198.23085866992     
  -243.299257403772       -6.31576674923374     
  0.471925533642737       0.887346938775510        2.55031499946349     
   5.50667855175726       2.214074140701316E-005   2197.73120421310     
  -244.909725146804       -6.35866494754953     
  0.173662544587219       0.981521469313063        2.50641661110579     
   5.53256305123973       2.193565629402226E-005   2200.09387979846     
  -236.770613322607       -6.14244018087124     
  0.228289981446901       0.965257805795056        2.51572689603790     
   5.52787928394135       2.198510739060260E-005   2199.67403778333     
  -238.206276865713       -6.18056801425305     
  0.282615419454853       0.949034824269248        2.52517267945850     
   5.52301841962838       2.203431695507644E-005   2199.23895072325     
  -239.675261918236       -6.21960559969397     
  0.336632496792295       0.932853629586131        2.53475614531182     
   5.51797378848759       2.208324269136923E-005   2198.78795758944     
  -241.178841291970       -6.25958849013556     
  0.390334557292304       0.916715400078606        2.54447934655082     
   5.51273738250067       2.213183106948473E-005   2198.32030158977     
  -242.718353575925       -6.30055428515140     
  0.443714638685107       0.900621389353282        2.55434418742627     
   5.50729978783404       2.218001656782709E-005   2197.83512399024     
  -244.295206956278       -6.34254276033214     
  0.496765459920045       0.884572928372388        2.56435240617826     
   5.50165008540021       2.222772069188793E-005   2197.33145587736     
  -245.910882833373       -6.38559599905587     
  0.549479405274939       0.868571428571429        2.57450552814020     
   5.49577573227236       2.227485059406986E-005   2196.80820818198     
  -247.566942403475       -6.42975860772963     
  0.199430060617870       0.978741665666968        2.52098077180867     
   5.52723752185483       2.202662550855701E-005   2199.67334821400     
  -237.876888008198       -6.17208952554274     
  0.253930895237902       0.962474365140738        2.53043475659768     
   5.52252447979332       2.207684005427099E-005   2199.24989857927     
  -239.317337495776       -6.21035937131201     
  0.308131520584569       0.946247308356180        2.54002828688109     
   5.51763356989801       2.212683065609253E-005   2198.81108269285     
  -240.791267569103       -6.24954380154995     
  0.362025642101851       0.930061578900494        2.54976371101188     
   5.51255809240917       2.217655559577406E-005   2198.35623314650     
  -242.299963550931       -6.28967873261165     
  0.415606674573479       0.913918332438320        2.55964325504501     
   5.50729000827760       2.222596191473640E-005   2197.88458619200     
  -243.844777605898       -6.33080215915732     
  0.468867730573309       0.897818798405326        2.56966900604424     
   5.50181987132379       2.227498465738138E-005   2197.39527550591     
  -245.427132622230       -6.37295428554949     
  0.521801608372296       0.881764281873192        2.57984289539305     
   5.49613672876370       2.232354588708452E-005   2196.88732388718     
  -247.048525972687       -6.41617766182798     
  0.574400774930405       0.865756166952746        2.59016664301530     
   5.49022800583546       2.237155324296190E-005   2196.35963329450     
  -248.710537210408       -6.46051742797512     
  0.626657353448049       0.849795918367347        2.60064180073434     
   5.48407932317970       2.241889887354366E-005   2195.81097177616     
  -250.414825112175       -6.50602129545239     
  0.225578207113422       0.975906260067773        2.53702198156634     
   5.52141160605002       2.212664690751986E-005   2199.20807807824     
  -239.120999675510       -6.20542118856922     
  0.279929339609586       0.959637585999355        2.54662848780590     
   5.51666885206196       2.217766402629282E-005   2198.78076695374     
  -240.566731240238       -6.24384759656095     
  0.333982064508136       0.943408739298933        2.55637871123903     
   5.51174748064455       2.222847482551734E-005   2198.33796249463     
  -242.046109426513       -6.28319366046068     
  0.387730155274090       0.927220782921275        2.56627516684683     
   5.50664076327308       2.227903814443182E-005   2197.87899069009     
  -243.560432137229       -6.32349566466127     
  0.441167098466316       0.911074850516328        2.57632025593097     
   5.50134063119386       2.232930157033970E-005   2197.40308059113     
  -245.111065175740       -6.36479200368590     
  0.494286082392003       0.894972148027035        2.58651624971787     
   5.49583760761465       2.237920067813234E-005   2196.90935802284     
  -246.699446268174       -6.40712331763799     
  0.547079985207381       0.878913955453363        2.59686526988489     
   5.49012070938026       2.242865802206959E-005   2196.39683724463     
  -248.327089323287       -6.45053264146974     
  0.599541358218762       0.862901630025235        2.60736925176512     
   5.48417732503809       2.247758180177160E-005   2195.86441075932     
  -249.995590283038       -6.49506560278376     
  0.651662413963549       0.846936607985409        2.61802994519543     
   5.47799304750235       2.252586452227683E-005   2195.31083653424     
  -251.706628876791       -6.54077052432192     
  0.703435006666444       0.831020408163265        2.62884888137735     
   5.47155148568275       2.257338119464227E-005   2194.73472314055     
  -253.461973908532       -6.58769862675806     
  0.252156948125831       0.973007620014085        2.55462730727608     
   5.51506489897794       2.223621323165707E-005   2198.69586013137     
  -240.508096759718       -6.24257692598803     
  0.306334778145237       0.956739884804058        2.56439587617842     
   5.51029195084087       2.228807522697595E-005   2198.26441830224     
  -241.959627580962       -6.28117510661068     
  0.360216017291494       0.940511582040867        2.57431247409987     
   5.50533965665745       2.233974860552026E-005   2197.81734973237     
  -243.444978695012       -6.32069827517185     
  0.413794507859829       0.924323754659399        2.58437978526940     
   5.50020126035514       2.239119274358517E-005   2197.35397356437     
  -244.965460698442       -6.36118309008398     
  0.467063809059959       0.908177514929464        2.59460038875202     
   5.49486866485615       2.244235574825514E-005   2196.87351138152     
  -246.522453147371       -6.40266835205854     
  0.520017185879416       0.892074045958587        2.60497674221660     
   5.48933236434944       2.249317369198021E-005   2196.37508086650     
  -248.117408733401       -6.44519514396851     
  0.572647597408539       0.876014603350675        2.61551116210503     
   5.48358134625532       2.254356959473869E-005   2195.85768740279     
  -249.751857769738       -6.48880698647985     
  0.624947680915714       0.860000518113613        2.62620579700567     
   5.47760296591964       2.259345214399816E-005   2195.32021372871     
  -251.427413144898       -6.53355001363328     
  0.676909738413749       0.844033198846858        2.63706260157622     
   5.47138278889118       2.264271417742718E-005   2194.76140730096     
  -253.145775181256       -6.57947315538559     
  0.728525719741729       0.828114134467387        2.64808333947496     
   5.46490439032903       2.269123109400320E-005   2194.17986503844     
  -254.908733333848       -6.62662824971920     
  0.779787204010411       0.812244897959184        2.65926951564206     
   5.45814913896701       2.273885852823283E-005   2193.57401578002     
  -256.718174941594       -6.67507034710569     
  0.279218162004770       0.970037649769745        2.57389719726233     
   5.50817399415251       2.235589189966430E-005   2198.13413913147     
  -242.044188362993       -6.28372213927983     
  0.333198489826981       0.953773229407142        2.58383817544277     
   5.50337032461300       2.240864458951751E-005   2197.69828015456     
  -243.502059160903       -6.32250804478408     
  0.386884061796029       0.937547867680815        2.59393165135132     
   5.49838660129583       2.246122648691196E-005   2197.24665421585     
  -244.993932268809       -6.36222455383993     
  0.440268789905549       0.921362588101552        2.60418048151424     
   5.49321604183864       2.251359748454882E-005   2196.77857334485     
  -246.521131135006       -6.40290870624883     
  0.493346306952099       0.905218482176038        2.61458742572834     
   5.48785052226175       2.256570618276568E-005   2196.29325136531     
  -248.085049227837       -6.44459971667102     
  0.546109955613492       0.889116710815206        2.62515513107562     
   5.48228050929556       2.261748911932482E-005   2195.78979749789     
  -249.687154354308       -6.48733911865124     
  0.598552777011352       0.873058505887228        2.63588611273970     
   5.47649496228842       2.266886974767466E-005   2195.26720789231     
  -251.328993260008       -6.53117092377556     
  0.650667495505966       0.857045172875104        2.64678273235242     
   5.47048120639448       2.271975717815324E-005   2194.72435516511     
  -253.012196262731       -6.57614178981223     
  0.702446503901380       0.841078093430886        2.65784715549617     
   5.46422478067052       2.277004454782977E-005   2194.15997581668     
  -254.738484034103       -6.62230125318339     
  0.753881848993018       0.825158727303818        2.66908137989992     
   5.45770922923864       2.281960757407116E-005   2193.57265466520     
  -256.509666929236       -6.66970178159134     
  0.804965212052697       0.809288616337207        2.68048715180860     
   5.45091589088472       2.286830211505584E-005   2192.96080732069     
  -258.327655641846       -6.71839912823994     
  0.855687889573353       0.793469387755102        2.69206594761213     
   5.44382362935404       2.291596184639468E-005   2192.32265922855     
  -260.194464916068       -6.76845252217199     
  0.306815920425917       0.966987716075960        2.59494673350173     
   5.50071236666694       2.248633112728938E-005   2197.51998994548     
  -243.736175603192       -6.32904684230019     
  0.360573850545084       0.950729065013319        2.60507136963416     
   5.49587740331862       2.254002422040031E-005   2197.07940810393     
  -245.200953225448       -6.36803725219024     
  0.414038881701055       0.934509119616599        2.61535314740313     
   5.49086169940136       2.259356451142076E-005   2196.62291172334     
  -246.699924270908       -6.40796418943971     
  0.467204996521487       0.918328884552652        2.62579509914415     
   5.48565844756831       2.264691238843704E-005   2196.14980542888     
  -248.234425243018       -6.44886508404720     
  0.520065902394759       0.902189431165688        2.63640016882638     
   5.48025949841322       2.270001691781665E-005   2195.65929496610     
  -249.805863729453       -6.49077957390678     
  0.572615020768706       0.886091898791929        2.64717119634331     
   5.47465529284689       2.275281506900377E-005   2195.15048074504     
  -251.415722858637       -6.53374965290727     
  0.624845475953764       0.870037496208315        2.65811089877912     
   5.46883476402413       2.280523068715821E-005   2194.62234930212     
  -253.065566033485       -6.57781983416557     
  0.676750080181695       0.854027504176934        2.66922184842164     
   5.46278521085146       2.285717322220147E-005   2194.07376276275     
  -254.757041799715       -6.62303732493521     
  0.728321319095496       0.838063277773276        2.68050644494424     
   5.45649214129901       2.290853617675681E-005   2193.50344604849     
  -256.491889318811       -6.66945222657408     
  0.779551337842682       0.822146248537837        2.69196690249729     
   5.44993907793302       2.295919539252416E-005   2192.90997155562     
  -258.271942140279       -6.71711770159096     
  0.830431921191931       0.806277927864441        2.70360521892290     
   5.44310732979914       2.300900691924902E-005   2192.29174105530     
  -260.099133782365       -6.76609019964978     
  0.880954475295478       0.790459910380899        2.71542312697286     
   5.43597573342817       2.305780448486845E-005   2191.64696486355     
  -261.975504767900       -6.81642973412030     
  0.931110006574940       0.774693877551020        2.72742206345300     
   5.42852034168701       2.310539671724837E-005   2190.97363726078     
  -263.903207681969       -6.86820012477268     
  0.335006726667840       0.963848572639304        2.61790705334976     
   5.49265025810345       2.262826676461120E-005   2196.85009119390     
  -245.591883520066       -6.37876666696894     
  0.388516574898704       0.947598238912474        2.62822760706260     
   5.48778338316440       2.268295428217597E-005   2196.40445927768     
  -247.064163604934       -6.41797927736033     
  0.441735406863712       0.931386278510399        2.63871014165918     
   5.48273510200092       2.273750720062885E-005   2195.94275729267     
  -248.570838116668       -6.45813467353323     
  0.494657276836305       0.915213677821262        2.64935786930021     
   5.47749858363984       2.279188638191357E-005   2195.46428214151     
  -250.113256863807       -6.49927068599166     
  0.547275967879860       0.899081488611774        2.66017392208583     
   5.47206565478166       2.284604133035161E-005   2194.96823114338     
  -251.692841808812       -6.54142738672632     
  0.599584981371964       0.882990829248960        2.67116133666710     
   5.46642673221499       2.289990941230345E-005   2194.45369551684     
  -253.311091656192       -6.58464724126165     
  0.651577526053324       0.866942886045707        2.68232303606953     
   5.46057072473369       2.295341482329244E-005   2193.91965176778     
  -254.969586706985       -6.62897527567445     
  0.703246503366579       0.850938915691697        2.69366180872855     
   5.45448490651105       2.300646731251555E-005   2193.36495106355     
  -256.669993813255       -6.67445925452439     
  0.754584493740266       0.834980247308662        2.70518028734385     
   5.44815475843923       2.305896065882531E-005   2192.78830629251     
  -258.414071378205       -6.72114986971397     
  0.805583741089693       0.819068285042588        2.71688091113640     
   5.44156378226370       2.311077078939187E-005   2192.18827683527     
  -260.203675929930       -6.76910098018826     
  0.856236135869212       0.803204510504626        2.72876593149436     
   5.43469326067536       2.316175385440580E-005   2191.56325004594     
  -262.040764211708       -6.81836975012972     
  0.906533195639490       0.787390486478224        2.74083734109453     
   5.42752200601710       2.321174354106415E-005   2190.91142045520     
  -263.927402768382       -6.86901699215429     
  0.956466044698392       0.771627860230773        2.75309684917862     
   5.42002604756468       2.326054830879826E-005   2190.23076497512     
  -265.865772694644       -6.92110740387494     
   1.00602539163091       0.755918367346939        2.76554584041534     
   5.41217827861846       2.330794816222073E-005   2189.51901444961     
  -267.858175766166       -6.97470985830806     
  0.363849707174250       0.960610283390793        2.64292695292970     
   5.48395456885907       2.278252986497505E-005   2196.12069662948     
  -247.620091947226       -6.43312386891070     
  0.417084912685110       0.944370923973576        2.65345681750608     
   5.47905511889448       2.283827061267704E-005   2195.66966352948     
  -249.100501640575       -6.47257738550128     
  0.470031014773343       0.928169626003634        2.66415371981511     
   5.47397361851509       2.289389522619351E-005   2195.20239622134     
  -250.615517497968       -6.51298030931961     
  0.522682140455166       0.912007358141053        2.67502105641334     
   5.46870321453758       2.294936501916392E-005   2194.71818353734     
  -252.166502930986       -6.55437088325737     
  0.575032149639809       0.895885153144506        2.68606215206031     
   5.46323571136624       2.300462990476154E-005   2194.21621398973     
  -253.754894582150       -6.59678962591992     
  0.627074624884170       0.879804109001121        2.69728024469499     
   5.45756150343527       2.305962761003812E-005   2193.69556918939     
  -255.382207038629       -6.64027948750531     
  0.678802860691639       0.863765390170206        2.70867846785508     
   5.45166947711202       2.311428263717168E-005   2193.15521515655     
  -257.050037802113       -6.68488602051784     
  0.730209849133996       0.847770229902665        2.72025983049280     
   5.44554688403316       2.316850498122212E-005   2192.59399160449     
  -258.760072354379       -6.73065756141135     
  0.781288266416619       0.831819932178023        2.73202719569174     
   5.43917918276478       2.322218859147527E-005   2192.01059890208     
  -260.514089387657       -6.77764542636012     
  0.832030457676778       0.815915874059726        2.74398325380568     
   5.43254984963065       2.327520954041519E-005   2191.40358264229     
  -262.313966528466       -6.82590413047016     
  0.882428420651227       0.800059508361900        2.75613049168330     
   5.42564015123981       2.332742385665840E-005   2190.77131529636     
  -264.161686270765       -6.87549162542663     
  0.932473785969474       0.784252366691314        2.76847117351891     
   5.41842887647746       2.337866513322128E-005   2190.11197483082     
  -266.059340782179       -6.92646952237622     
  0.982157797784913       0.768496062877713        2.78100728496063     
   5.41089203454062       2.342874154653519E-005   2189.42352000246     
  -268.009139989747       -6.97890341551725     
   1.03147129157353       0.752792296548268        2.79374050025327     
   5.40300249984582       2.347743265048440E-005   2188.70366163947     
  -270.013417256460       -7.03286316311225     
   1.08040467001837       0.737142857142857        2.80667213793753     
   5.39472961026204       2.352448569774204E-005   2187.94982967095     
  -272.074635874770       -7.08842321125123     
  0.393406713455525       0.957262148768888        2.67017463369163     
   5.47458878228866       2.295005467725878E-005   2195.32760604188     
  -249.830558897870       -6.49238816463395     
  0.446339758222853       0.941036545058538        2.68092847402437     
   5.46965604795094       2.300691277139315E-005   2194.87079415552     
  -251.319759577194       -6.53210239827668     
  0.498985647334821       0.924848711245379        2.69185465126484     
   5.46454064092556       2.306367351116692E-005   2194.39757458812     
  -252.843789786413       -6.57277305418489     
  0.551338581742054       0.908699598796863        2.70295675155233     
   5.45923568729763       2.312029863900752E-005   2193.90722772117     
  -254.404026887908       -6.61443880118082     
  0.603392499468009       0.892590222017103        2.71423829746636     
   5.45373297084096       2.317673844664632E-005   2193.39893284381     
  -256.001922561242       -6.65714061875030     
  0.655141065598472       0.876521659085861        2.72570273340908     
   5.44802286548009       2.323293098390408E-005   2192.87176150428     
  -257.639007637013       -6.70092195665625     
  0.706577661834073       0.860495053201916        2.73735340864511     
   5.44209423718144       2.328880101356455E-005   2192.32466873972     
  -259.316897178467       -6.74582890930429     
  0.757695372400110       0.844511614792549        2.74919355786672     
   5.43593431727506       2.334425872138839E-005   2191.75648226595     
  -261.037295660281       -6.79191040121362     
  0.808486970905327       0.828572623332457        2.76122628059873     
   5.42952854417318       2.339919816689085E-005   2191.16588933223     
  -262.802002339572       -6.83921838747783     
  0.858944905998979       0.812679429402897        2.77345451845871     
   5.42286037320595       2.345349546028772E-005   2190.55142113592     
  -264.612916811348       -6.88780806997000     
  0.909061283375911       0.796833457832243        2.78588100386972     
   5.41591105608812       2.350700644981665E-005   2189.91143450296     
  -266.472047224767       -6.93773819477380     
  0.958827849282553       0.781036209697605        2.79850827525543     
   5.40865936233081       2.355956451591565E-005   2189.24409007615     
  -268.381511953296       -6.98907119672744     
   1.00823596982050       0.765289266128167        2.81133859919358     
   5.40108128477386       2.361097742908692E-005   2188.54732759876     
  -270.343550170567       -7.04187358862244     
   1.05727660959442       0.749594291557597        2.82437394390869     
   5.39314968303338       2.366102415109877E-005   2187.81883693695     
  -272.360527240325       -7.09621623724067     
   1.10594030807946       0.733953037526920        2.83761593589664     
   5.38483388207898       2.370945112584591E-005   2187.05602486161     
  -274.434941500387       -7.15217469725476     
   1.15421715357456       0.718367346938775        2.85106581284581     
   5.37609922267359       2.375596814729963E-005   2186.25597724239     
  -276.569431107409       -7.20982957140742     
  0.423742323917155       0.953792635962185        2.69983956957127     
   5.46451293936892       2.313188684633418E-005   2194.46613709494     
  -252.234031032318       -6.55685725910805     
  0.476344663035508       0.937583709183315        2.71083347691534     
   5.45954616520769       2.318993229799820E-005   2194.00313954692     
  -253.732720971128       -6.59685322244137     
  0.528661834446092       0.921412280951771        2.72200529023905     
   5.45439611856296       2.324789954757557E-005   2193.52355071441     
  -255.266476383998       -6.63781304953968     
  0.580688114329913       0.905279286061584        2.73335879114189     
   5.44905590633259       2.330575074253636E-005   2193.02664211178     
  -256.836688983840       -6.67977585045933     
  0.632417520200594       0.889185720898538        2.74489770589012     
   5.44351729339874       2.336343652152841E-005   2192.51158334970     
  -258.444825898417       -6.72278308169228     
  0.683843801132861       0.873132644389430        2.75662569123651     
   5.43777063510590       2.342089521725615E-005   2191.97743541606     
  -260.092434620158       -6.76687870945295     
  0.734960427572094       0.857121179046599        2.76854631807175     
   5.43180477915353       2.347805180422018E-005   2191.42314182130     
  -261.781148199643       -6.81210938775402     
  0.785760577536448       0.841152513069076        2.78066305260343     
   5.42560693896166       2.353481659930514E-005   2190.84751769085     
  -263.512690550758       -6.85852464810626     
  0.836237123772012       0.825227902044820        2.79297923593646     
   5.41916253562910       2.359108369787161E-005   2190.24923651050     
  -265.288882014253       -6.90617710607440     
  0.886382619720863       0.809348670882269        2.80549805967443     
   5.41245500864860       2.364672912222051E-005   2189.62681442698     
  -267.111645317070       -6.95512268917673     
  0.936189281972130       0.793516216667295        2.81822252977596     
   5.40546559083127       2.370160857911417E-005   2188.97859166518     
  -268.983012536333       -7.00542090394538     
  0.985648974220546       0.777732010962179        2.83115544114290     
   5.39817304327237       2.375555498204707E-005   2188.30271087917     
  -270.905130963791       -7.05713508936217     
   1.03475318658713       0.761997602828696        2.84429935417367     
   5.39055334393511       2.380837561036593E-005   2187.59709179739     
  -272.880268805928       -7.11033268384222     
   1.08349301517228       0.746314622245956        2.85765653608078     
   5.38257934196580       2.385984868142829E-005   2186.85940229111     
  -274.910823942912       -7.16508558972037     
   1.13185913876992       0.730684783622151        2.87122892618008     
   5.37422035418990       2.390971965550505E-005   2186.08702483229     
  -276.999330276227       -7.22147049894387     
   1.17984179335535       0.715109889816976        2.88501808990332     
   5.36544171596894       2.395769706663845E-005   2185.27701839018     
  -279.148464889912       -7.27956926469879     
   1.22743074375184       0.699591836734694        2.89902516925989     
   5.35620428313829       2.400344792198575E-005   2184.42607529124     
  -281.361055226491       -7.33946930190025     